 LAMMPS data file for protein binding
 
          41   atoms
          40   bonds
          39   angles
          38   dihedrals
 
           2   atom types
           1   bond types
           1   angle types
           2   dihedral types
 
  -250.000000       250.000000        xlo xhi
  -250.000000       250.000000        ylo yhi
  -250.000000       250.000000        zlo zhi
 
 Masses
 
           1   71.0800018    
           2   103.099998    
 
 Atoms
 
       1          1          1      0.000    -76.400      0.000      0.000
       2          1          1      0.000    -72.580      0.000      0.000
       3          1          1      0.000    -68.760      0.000      0.000
       4          1          1      0.000    -64.940      0.000      0.000
       5          1          1      0.000    -61.120      0.000      0.000
       6          1          1      0.000    -57.300      0.000      0.000
       7          1          1      0.000    -53.480      0.000      0.000
       8          1          1      0.000    -49.660      0.000      0.000
       9          1          1      0.000    -45.840      0.000      0.000
      10          1          1      0.000    -42.020      0.000      0.000
      11          1          1      0.000    -38.200      0.000      0.000
      12          1          1      0.000    -34.380      0.000      0.000
      13          1          1      0.000    -30.560      0.000      0.000
      14          1          1      0.000    -26.740      0.000      0.000
      15          1          1      0.000    -22.920      0.000      0.000
      16          1          1      0.000    -19.100      0.000      0.000
      17          1          1      0.000    -15.280      0.000      0.000
      18          1          1      0.000    -11.460      0.000      0.000
      19          1          1      0.000     -7.640      0.000      0.000
      20          1          1      0.000     -3.820      0.000      0.000
      21          1          2      0.000      0.000      0.000      0.000
      22          1          1      0.000      3.820      0.000      0.000
      23          1          1      0.000      7.640      0.000      0.000
      24          1          1      0.000     11.460      0.000      0.000
      25          1          1      0.000     15.280      0.000      0.000
      26          1          1      0.000     19.100      0.000      0.000
      27          1          1      0.000     22.920      0.000      0.000
      28          1          1      0.000     26.740      0.000      0.000
      29          1          1      0.000     30.560      0.000      0.000
      30          1          1      0.000     34.380      0.000      0.000
      31          1          1      0.000     38.200      0.000      0.000
      32          1          1      0.000     42.020      0.000      0.000
      33          1          1      0.000     45.840      0.000      0.000
      34          1          1      0.000     49.660      0.000      0.000
      35          1          1      0.000     53.480      0.000      0.000
      36          1          1      0.000     57.300      0.000      0.000
      37          1          1      0.000     61.120      0.000      0.000
      38          1          1      0.000     64.940      0.000      0.000
      39          1          1      0.000     68.760      0.000      0.000
      40          1          1      0.000     72.580      0.000      0.000
      41          1          1      0.000     76.400      0.000      0.000
 
 Bonds
 
       1       1       1       2
       2       1       2       3
       3       1       3       4
       4       1       4       5
       5       1       5       6
       6       1       6       7
       7       1       7       8
       8       1       8       9
       9       1       9      10
      10       1      10      11
      11       1      11      12
      12       1      12      13
      13       1      13      14
      14       1      14      15
      15       1      15      16
      16       1      16      17
      17       1      17      18
      18       1      18      19
      19       1      19      20
      20       1      20      21
      21       1      21      22
      22       1      22      23
      23       1      23      24
      24       1      24      25
      25       1      25      26
      26       1      26      27
      27       1      27      28
      28       1      28      29
      29       1      29      30
      30       1      30      31
      31       1      31      32
      32       1      32      33
      33       1      33      34
      34       1      34      35
      35       1      35      36
      36       1      36      37
      37       1      37      38
      38       1      38      39
      39       1      39      40
      40       1      40      41
 
 Angles
 
       1       1       1       2       3
       2       1       2       3       4
       3       1       3       4       5
       4       1       4       5       6
       5       1       5       6       7
       6       1       6       7       8
       7       1       7       8       9
       8       1       8       9      10
       9       1       9      10      11
      10       1      10      11      12
      11       1      11      12      13
      12       1      12      13      14
      13       1      13      14      15
      14       1      14      15      16
      15       1      15      16      17
      16       1      16      17      18
      17       1      17      18      19
      18       1      18      19      20
      19       1      19      20      21
      20       1      20      21      22
      21       1      21      22      23
      22       1      22      23      24
      23       1      23      24      25
      24       1      24      25      26
      25       1      25      26      27
      26       1      26      27      28
      27       1      27      28      29
      28       1      28      29      30
      29       1      29      30      31
      30       1      30      31      32
      31       1      31      32      33
      32       1      32      33      34
      33       1      33      34      35
      34       1      34      35      36
      35       1      35      36      37
      36       1      36      37      38
      37       1      37      38      39
      38       1      38      39      40
      39       1      39      40      41
 
 Dihedrals
 
       1       1       1       2       3       4
       2       1       2       3       4       5
       3       1       3       4       5       6
       4       1       4       5       6       7
       5       1       5       6       7       8
       6       1       6       7       8       9
       7       1       7       8       9      10
       8       1       8       9      10      11
       9       1       9      10      11      12
      10       1      10      11      12      13
      11       1      11      12      13      14
      12       1      12      13      14      15
      13       1      13      14      15      16
      14       1      14      15      16      17
      15       1      15      16      17      18
      16       1      16      17      18      19
      17       1      17      18      19      20
      18       2      18      19      20      21
      19       2      19      20      21      22
      20       2      20      21      22      23
      21       2      21      22      23      24
      22       1      22      23      24      25
      23       1      23      24      25      26
      24       1      24      25      26      27
      25       1      25      26      27      28
      26       1      26      27      28      29
      27       1      27      28      29      30
      28       1      28      29      30      31
      29       1      29      30      31      32
      30       1      30      31      32      33
      31       1      31      32      33      34
      32       1      32      33      34      35
      33       1      33      34      35      36
      34       1      34      35      36      37
      35       1      35      36      37      38
      36       1      36      37      38      39
      37       1      37      38      39      40
      38       1      38      39      40      41
