 LAMMPS data file for protein binding
 
         151   atoms
         150   bonds
         149   angles
         148   dihedrals
 
          17   atom types
           1   bond types
           1   angle types
         110   dihedral types
 
  -150.000000       150.000000        xlo xhi
  -150.000000       150.000000        ylo yhi
  -150.000000       150.000000        zlo zhi
 
 Masses
 
           1   57.0499992    
           2   137.100006    
           3   131.199997    
           4   114.099998    
           5   156.199997    
           6   128.100006    
           7   113.199997    
           8   129.100006    
           9   87.0800018    
          10   147.199997    
          11   97.1200027    
          12   71.0800018    
          13   113.199997    
          14   186.199997    
          15   163.199997    
          16   115.099998    
          17   128.199997    
 
 Atoms
 
       1          1          1      0.000     -3.802    -14.973      0.301
       2          1          2      0.000     -4.823    -12.508     -2.430
       3          1          3      0.000     -5.186    -10.246     -5.459
       4          1          4      0.000     -8.628     -8.727     -6.265
       5          1          5      1.000    -10.355     -5.873     -8.112
       6          1          6      0.000    -10.738     -3.278     -5.335
       7          1          7      0.000    -12.324     -1.687     -2.245
       8          1          8     -1.000     -9.931     -1.764      0.732
       9          1          5      1.000     -8.900     -0.974      4.324
      10          1          9      0.000     -5.961     -1.327      6.739
      11          1          1      0.000     -5.817     -5.150      7.012
      12          1          5      1.000     -2.306     -6.271      5.950
      13          1         10      0.000      0.939     -8.193      6.006
      14          1          1      0.000      3.981    -10.500      5.769
      15          1          1      0.000      5.884     -8.878      8.646
      16          1          4      0.000      3.631     -8.407     11.651
      17          1         11      0.000      0.490     -6.344     12.040
      18          1          1      0.000     -1.668     -9.133     10.585
      19          1          1      0.000     -2.964    -12.582      9.475
      20          1         10      0.000     -2.209    -13.614      5.924
      21          1          1      0.000      1.110    -14.420      7.654
      22          1          4      0.000      3.563    -14.144     10.609
      23          1          6      0.000      6.346    -13.271     13.140
      24          1          1      0.000      8.742    -10.814     14.901
      25          1          1      0.000     11.735    -10.239     12.598
      26          1         10      0.000     11.379    -11.998      9.226
      27          1          1      0.000     10.233    -15.550      8.612
      28          1          4      0.000      8.422    -16.352      5.305
      29          1          9      0.000      6.495    -17.914      2.364
      30          1          5      1.000      2.814    -18.292      3.273
      31          1          1      0.000      3.183    -14.448      2.856
      32          1          1      0.000      1.861    -11.288      1.183
      33          1          1      0.000      0.768     -7.664      0.560
      34          1         12      0.000      0.417     -3.825      0.578
      35          1          1      0.000     -2.900     -2.045     -0.072
      36          1          7      0.000     -4.582     -5.048     -1.725
      37          1          1      0.000     -8.027     -6.376     -0.832
      38          1          4      0.000     -9.168     -8.168      2.315
      39          1          4      0.000    -12.108     -6.851      4.392
      40          1          6      0.000    -15.762     -5.911      3.796
      41          1          1      0.000    -15.729     -6.278      0.003
      42          1          9      0.000    -15.465     -7.094     -3.751
      43          1          4      0.000    -16.751     -5.616     -7.031
      44          1          3      0.000    -19.580     -3.311     -8.162
      45          1          1      0.000    -19.078     -1.365     -4.914
      46          1          1      0.000    -20.165     -4.272     -2.674
      47          1          1      0.000    -19.969     -7.920     -1.696
      48          1          3      0.000    -20.675    -10.858      0.671
      49          1          4      0.000    -18.875    -13.860      2.200
      50          1         10      0.000    -18.448    -17.662      1.422
      51          1          1      0.000    -16.500    -17.533     -1.876
      52          1         12      0.000    -12.771    -16.818     -1.564
      53          1         10      0.000    -10.819    -15.200     -4.390
      54          1          9      0.000     -8.830    -17.273     -6.952
      55          1         13      0.000     -5.438    -15.897     -8.048
      56          1          4      0.000     -4.100    -13.543    -10.743
      57          1         11      0.000     -6.869    -11.073    -11.742
      58          1         12      0.000     -5.474     -7.698    -12.808
      59          1          3      0.000     -2.429     -6.354    -10.933
      60          1          3      0.000      0.509     -4.993    -12.791
      61          1         12      0.000      1.783     -2.681    -15.588
      62          1         12      0.000      5.500     -3.262    -16.229
      63          1         12      0.000      6.395     -1.492    -12.963
      64          1          6      0.000      5.205      1.988    -13.937
      65          1         12      0.000      3.295      4.033    -11.331
      66          1         12      0.000      2.148      5.537     -7.955
      67          1          7      0.000     -0.195      8.308     -6.889
      68          1          6      0.000     -1.781      6.577     -3.853
      69          1          9      0.000     -1.978      3.266     -1.932
      70          1          9      0.000     -2.374      4.048      1.713
      71          1         14      0.000     -0.394      1.464      3.726
      72          1          1      0.000      3.293      1.868      4.669
      73          1          3      0.000      6.723      2.664      3.148
      74          1          3      0.000      4.857      1.555     -0.096
      75          1          1      0.000      3.115      4.291     -2.113
      76          1          3      0.000      2.732      6.996      0.563
      77          1          7      0.000      3.439      8.808      3.830
      78          1         12      0.000      4.030     11.275      6.666
      79          1          9      0.000      1.383     11.958      9.362
      80          1          6      0.000      2.477      9.156     11.661
      81          1          6      0.000      1.714      6.324      9.163
      82          1          4      0.000      2.524      2.667      9.915
      83          1          6      0.000      1.479     -0.793     11.272
      84          1          9      0.000      1.492     -1.243     15.053
      85          1          1      0.000     -0.695     -3.884     16.701
      86          1         11      0.000     -3.659     -3.487     14.361
      87          1          9      0.000     -6.781     -4.825     12.668
      88          1          1      0.000    -10.068     -2.883     12.313
      89          1          4      0.000    -13.326     -1.360     10.987
      90          1          4      0.000    -13.318      2.427     10.806
      91          1          6      0.000     -9.785      3.518      9.839
      92          1          4      0.000     -7.341      5.194      7.387
      93          1          6      0.000     -5.548      7.295      4.735
      94          1          1      0.000     -2.255      9.174      4.749
      95          1          4      0.000     -1.957     10.954      1.377
      96          1          3      0.000     -3.454     14.212      2.518
      97          1          6      0.000     -4.395     14.970      6.121
      98          1          5      1.000     -2.573     16.554      9.072
      99          1          8     -1.000     -1.969     20.231      8.302
     100          1         11      0.000     -2.446     20.319      4.525
     101          1          4      0.000     -5.029     20.117      1.755
     102          1          6      0.000     -8.270     19.165      3.556
     103          1         12      0.000    -10.984     16.712      2.496
     104          1         10      0.000    -13.486     14.585      4.463
     105          1          1      0.000    -15.397     17.960      4.246
     106          1          9      0.000    -13.787     21.207      3.036
     107          1          1      0.000    -12.663     24.513      4.606
     108          1          4      0.000     -9.500     25.016      6.681
     109          1          4      0.000     -5.655     25.092      7.246
     110          1          9      0.000     -4.635     26.756      3.891
     111          1         15      0.000     -1.583     25.695      1.768
     112          1          9      0.000     -0.179     22.790     -0.234
     113          1          1      0.000      0.208     19.053     -1.179
     114          1          9      0.000      3.690     18.785      0.442
     115          1          4      0.000      2.538     15.363      1.691
     116          1          9      0.000      3.682     13.421     -1.372
     117          1          1      0.000      7.306     12.209     -1.126
     118          1         12      0.000      9.424     14.312     -3.480
     119          1         12      0.000     13.076     14.419     -2.439
     120          1         13      0.000     13.953     10.879     -3.531
     121          1          1      0.000     10.614      9.592     -4.862
     122          1         14      0.000      7.206      7.844     -4.867
     123          1          1      0.000      7.771      6.171     -1.451
     124          1          9      0.000     11.566      5.812     -0.858
     125          1         12      0.000     11.614      3.741     -4.031
     126          1          9      0.000     15.384      3.915     -4.605
     127          1          4      0.000     17.016      4.644     -7.982
     128          1         12      0.000     14.824      5.410    -11.021
     129          1          1      0.000     12.066      7.667     -9.652
     130          1          9      0.000      8.838      5.875    -10.630
     131          1          1      0.000     10.490      2.911    -12.411
     132          1          9      0.000     11.937     -0.273    -14.017
     133          1          1      0.000     15.293      1.501    -14.028
     134          1         10      0.000     18.913      2.318    -14.918
     135          1          4      0.000     20.599     -0.869    -13.657
     136          1          1      0.000     17.540     -2.294    -11.867
     137          1          1      0.000     19.780     -1.936     -8.793
     138          1         10      0.000     19.367     -5.319     -7.075
     139          1          1      0.000     18.206     -8.528     -5.364
     140          1          9      0.000     17.084    -11.912     -6.736
     141          1          9      0.000     14.641    -11.949     -3.800
     142          1          3      0.000     12.376     -8.933     -4.275
     143          1         16     -1.000     12.394     -6.617     -7.340
     144          1          9      0.000     11.420     -3.765     -9.700
     145          1         17      1.000     13.053     -0.932     -7.756
     146          1          9      0.000     10.684     -1.185     -4.767
     147          1          9      0.000      9.307     -2.393     -1.431
     148          1          1      0.000      8.135     -5.618     -3.164
     149          1         14      0.000      4.461     -4.851     -3.794
     150          1          1      0.000      4.887     -1.163     -4.694
     151          1          3      0.000      6.154      1.035     -7.547
 
 Bonds
 
       1       1       1       2
       2       1       2       3
       3       1       3       4
       4       1       4       5
       5       1       5       6
       6       1       6       7
       7       1       7       8
       8       1       8       9
       9       1       9      10
      10       1      10      11
      11       1      11      12
      12       1      12      13
      13       1      13      14
      14       1      14      15
      15       1      15      16
      16       1      16      17
      17       1      17      18
      18       1      18      19
      19       1      19      20
      20       1      20      21
      21       1      21      22
      22       1      22      23
      23       1      23      24
      24       1      24      25
      25       1      25      26
      26       1      26      27
      27       1      27      28
      28       1      28      29
      29       1      29      30
      30       1      30      31
      31       1      31      32
      32       1      32      33
      33       1      33      34
      34       1      34      35
      35       1      35      36
      36       1      36      37
      37       1      37      38
      38       1      38      39
      39       1      39      40
      40       1      40      41
      41       1      41      42
      42       1      42      43
      43       1      43      44
      44       1      44      45
      45       1      45      46
      46       1      46      47
      47       1      47      48
      48       1      48      49
      49       1      49      50
      50       1      50      51
      51       1      51      52
      52       1      52      53
      53       1      53      54
      54       1      54      55
      55       1      55      56
      56       1      56      57
      57       1      57      58
      58       1      58      59
      59       1      59      60
      60       1      60      61
      61       1      61      62
      62       1      62      63
      63       1      63      64
      64       1      64      65
      65       1      65      66
      66       1      66      67
      67       1      67      68
      68       1      68      69
      69       1      69      70
      70       1      70      71
      71       1      71      72
      72       1      72      73
      73       1      73      74
      74       1      74      75
      75       1      75      76
      76       1      76      77
      77       1      77      78
      78       1      78      79
      79       1      79      80
      80       1      80      81
      81       1      81      82
      82       1      82      83
      83       1      83      84
      84       1      84      85
      85       1      85      86
      86       1      86      87
      87       1      87      88
      88       1      88      89
      89       1      89      90
      90       1      90      91
      91       1      91      92
      92       1      92      93
      93       1      93      94
      94       1      94      95
      95       1      95      96
      96       1      96      97
      97       1      97      98
      98       1      98      99
      99       1      99     100
     100       1     100     101
     101       1     101     102
     102       1     102     103
     103       1     103     104
     104       1     104     105
     105       1     105     106
     106       1     106     107
     107       1     107     108
     108       1     108     109
     109       1     109     110
     110       1     110     111
     111       1     111     112
     112       1     112     113
     113       1     113     114
     114       1     114     115
     115       1     115     116
     116       1     116     117
     117       1     117     118
     118       1     118     119
     119       1     119     120
     120       1     120     121
     121       1     121     122
     122       1     122     123
     123       1     123     124
     124       1     124     125
     125       1     125     126
     126       1     126     127
     127       1     127     128
     128       1     128     129
     129       1     129     130
     130       1     130     131
     131       1     131     132
     132       1     132     133
     133       1     133     134
     134       1     134     135
     135       1     135     136
     136       1     136     137
     137       1     137     138
     138       1     138     139
     139       1     139     140
     140       1     140     141
     141       1     141     142
     142       1     142     143
     143       1     143     144
     144       1     144     145
     145       1     145     146
     146       1     146     147
     147       1     147     148
     148       1     148     149
     149       1     149     150
     150       1     150     151
 
 Angles
 
       1       1       1       2       3
       2       1       2       3       4
       3       1       3       4       5
       4       1       4       5       6
       5       1       5       6       7
       6       1       6       7       8
       7       1       7       8       9
       8       1       8       9      10
       9       1       9      10      11
      10       1      10      11      12
      11       1      11      12      13
      12       1      12      13      14
      13       1      13      14      15
      14       1      14      15      16
      15       1      15      16      17
      16       1      16      17      18
      17       1      17      18      19
      18       1      18      19      20
      19       1      19      20      21
      20       1      20      21      22
      21       1      21      22      23
      22       1      22      23      24
      23       1      23      24      25
      24       1      24      25      26
      25       1      25      26      27
      26       1      26      27      28
      27       1      27      28      29
      28       1      28      29      30
      29       1      29      30      31
      30       1      30      31      32
      31       1      31      32      33
      32       1      32      33      34
      33       1      33      34      35
      34       1      34      35      36
      35       1      35      36      37
      36       1      36      37      38
      37       1      37      38      39
      38       1      38      39      40
      39       1      39      40      41
      40       1      40      41      42
      41       1      41      42      43
      42       1      42      43      44
      43       1      43      44      45
      44       1      44      45      46
      45       1      45      46      47
      46       1      46      47      48
      47       1      47      48      49
      48       1      48      49      50
      49       1      49      50      51
      50       1      50      51      52
      51       1      51      52      53
      52       1      52      53      54
      53       1      53      54      55
      54       1      54      55      56
      55       1      55      56      57
      56       1      56      57      58
      57       1      57      58      59
      58       1      58      59      60
      59       1      59      60      61
      60       1      60      61      62
      61       1      61      62      63
      62       1      62      63      64
      63       1      63      64      65
      64       1      64      65      66
      65       1      65      66      67
      66       1      66      67      68
      67       1      67      68      69
      68       1      68      69      70
      69       1      69      70      71
      70       1      70      71      72
      71       1      71      72      73
      72       1      72      73      74
      73       1      73      74      75
      74       1      74      75      76
      75       1      75      76      77
      76       1      76      77      78
      77       1      77      78      79
      78       1      78      79      80
      79       1      79      80      81
      80       1      80      81      82
      81       1      81      82      83
      82       1      82      83      84
      83       1      83      84      85
      84       1      84      85      86
      85       1      85      86      87
      86       1      86      87      88
      87       1      87      88      89
      88       1      88      89      90
      89       1      89      90      91
      90       1      90      91      92
      91       1      91      92      93
      92       1      92      93      94
      93       1      93      94      95
      94       1      94      95      96
      95       1      95      96      97
      96       1      96      97      98
      97       1      97      98      99
      98       1      98      99     100
      99       1      99     100     101
     100       1     100     101     102
     101       1     101     102     103
     102       1     102     103     104
     103       1     103     104     105
     104       1     104     105     106
     105       1     105     106     107
     106       1     106     107     108
     107       1     107     108     109
     108       1     108     109     110
     109       1     109     110     111
     110       1     110     111     112
     111       1     111     112     113
     112       1     112     113     114
     113       1     113     114     115
     114       1     114     115     116
     115       1     115     116     117
     116       1     116     117     118
     117       1     117     118     119
     118       1     118     119     120
     119       1     119     120     121
     120       1     120     121     122
     121       1     121     122     123
     122       1     122     123     124
     123       1     123     124     125
     124       1     124     125     126
     125       1     125     126     127
     126       1     126     127     128
     127       1     127     128     129
     128       1     128     129     130
     129       1     129     130     131
     130       1     130     131     132
     131       1     131     132     133
     132       1     132     133     134
     133       1     133     134     135
     134       1     134     135     136
     135       1     135     136     137
     136       1     136     137     138
     137       1     137     138     139
     138       1     138     139     140
     139       1     139     140     141
     140       1     140     141     142
     141       1     141     142     143
     142       1     142     143     144
     143       1     143     144     145
     144       1     144     145     146
     145       1     145     146     147
     146       1     146     147     148
     147       1     147     148     149
     148       1     148     149     150
     149       1     149     150     151
 
 Dihedrals
 
       1       1       1       2       3       4
       2       2       2       3       4       5
       3       3       3       4       5       6
       4       4       4       5       6       7
       5       5       5       6       7       8
       6       6       6       7       8       9
       7       7       7       8       9      10
       8       8       8       9      10      11
       9       9       9      10      11      12
      10      10      10      11      12      13
      11      11      11      12      13      14
      12      12      12      13      14      15
      13      13      13      14      15      16
      14      14      14      15      16      17
      15      15      15      16      17      18
      16      16      16      17      18      19
      17      17      17      18      19      20
      18      18      18      19      20      21
      19      19      19      20      21      22
      20      20      20      21      22      23
      21      21      21      22      23      24
      22      16      22      23      24      25
      23      22      23      24      25      26
      24      19      24      25      26      27
      25      23      25      26      27      28
      26      10      26      27      28      29
      27      24      27      28      29      30
      28      25      28      29      30      31
      29      23      29      30      31      32
      30      26      30      31      32      33
      31      27      31      32      33      34
      32      28      32      33      34      35
      33      28      33      34      35      36
      34      29      34      35      36      37
      35      30      35      36      37      38
      36      31      36      37      38      39
      37      32      37      38      39      40
      38      23      38      39      40      41
      39      33      39      40      41      42
      40      34      40      41      42      43
      41      35      41      42      43      44
      42      11      42      43      44      45
      43      23      43      44      45      46
      44      36      44      45      46      47
      45      36      45      46      47      48
      46      16      46      47      48      49
      47      21      47      48      49      50
      48      37      48      49      50      51
      49      38      49      50      51      52
      50      39      50      51      52      53
      51      40      51      52      53      54
      52      41      52      53      54      55
      53      42      53      54      55      56
      54      43      54      55      56      57
      55      44      55      56      57      58
      56      45      56      57      58      59
      57      46      57      58      59      60
      58      47      58      59      60      61
      59      48      59      60      61      62
      60      49      60      61      62      63
      61      50      61      62      63      64
      62      51      62      63      64      65
      63      52      63      64      65      66
      64      53      64      65      66      67
      65      54      65      66      67      68
      66      55      66      67      68      69
      67      56      67      68      69      70
      68      57      68      69      70      71
      69      37      69      70      71      72
      70      58      70      71      72      73
      71      59      71      72      73      74
      72      60      72      73      74      75
      73      61      73      74      75      76
      74      62      74      75      76      77
      75      63      75      76      77      78
      76      37      76      77      78      79
      77      64      77      78      79      80
      78      65      78      79      80      81
      79      66      79      80      81      82
      80      67      80      81      82      83
      81      68      81      82      83      84
      82      69      82      83      84      85
      83      70      83      84      85      86
      84      71      84      85      86      87
      85      23      85      86      87      88
      86      72      86      87      88      89
      87      70      87      88      89      90
      88      29      88      89      90      91
      89      73      89      90      91      92
      90      73      90      91      92      93
      91      73      91      92      93      94
      92      34      92      93      94      95
      93      74      93      94      95      96
      94      75      94      95      96      97
      95      76      95      96      97      98
      96      77      96      97      98      99
      97      78      97      98      99     100
      98      79      98      99     100     101
      99      80      99     100     101     102
     100      81     100     101     102     103
     101      17     101     102     103     104
     102      29     102     103     104     105
     103      67     103     104     105     106
     104      82     104     105     106     107
     105      83     105     106     107     108
     106      84     106     107     108     109
     107      85     107     108     109     110
     108      86     108     109     110     111
     109      87     109     110     111     112
     110      84     110     111     112     113
     111      88     111     112     113     114
     112      88     112     113     114     115
     113      89     113     114     115     116
     114      71     114     115     116     117
     115      90     115     116     117     118
     116      91     116     117     118     119
     117      92     117     118     119     120
     118      93     118     119     120     121
     119      94     119     120     121     122
     120      95     120     121     122     123
     121      95     121     122     123     124
     122      96     122     123     124     125
     123      97     123     124     125     126
     124      98     124     125     126     127
     125       9     125     126     127     128
     126      99     126     127     128     129
     127      84     127     128     129     130
     128      98     128     129     130     131
     129      71     129     130     131     132
     130     100     130     131     132     133
     131      86     131     132     133     134
     132      23     132     133     134     135
     133      11     133     134     135     136
     134     101     134     135     136     137
     135     102     135     136     137     138
     136      23     136     137     138     139