 LAMMPS data file for protein binding
 
         155   atoms
         154   bonds
         153   angles
         152   dihedrals
 
          12   atom types
           1   bond types
           1   angle types
          61   dihedral types
 
  -150.000000       150.000000        xlo xhi
  -150.000000       150.000000        ylo yhi
  -150.000000       150.000000        zlo zhi
 
 Masses
 
           1   57.0499992    
           2   137.100006    
           3   131.199997    
           4   156.199997    
           5   114.099998    
           6   147.199997    
           7   115.099998    
           8   87.0800018    
           9   97.1200027    
          10   163.199997    
          11   128.100006    
          12   128.199997    
 
 Atoms
 
       1          1          1      0.000    -13.055      0.177     11.139
       2          1          2      0.000    -16.400     -1.556     10.537
       3          1          3      0.000    -17.731     -4.248      8.165
       4          1          1      0.000    -19.685     -6.256     10.780
       5          1          4      1.000    -18.546     -6.300     14.400
       6          1          1      0.000    -14.853     -5.759     13.745
       7          1          1      0.000    -12.226     -3.054     14.450
       8          1          5      0.000     -9.446     -0.928     15.980
       9          1          6      0.000     -8.122      2.165     14.170
      10          1          1      0.000     -4.871      2.626     12.218
      11          1          6      0.000     -1.797      4.761     11.254
      12          1          1      0.000     -0.611      8.246     12.240
      13          1          7     -1.000     -0.987     12.022     12.530
      14          1          8      0.000     -0.901     13.132      8.904
      15          1          4      1.000     -1.839     10.715      6.075
      16          1          1      0.000     -1.409      8.553      2.955
      17          1          1      0.000     -3.344      7.985     -0.290
      18          1          1      0.000     -4.757      4.584      0.665
      19          1          1      0.000     -5.622      4.251     -3.049
      20          1          5      0.000     -8.872      2.301     -2.446
      21          1          6      0.000     -8.861      1.089     -6.075
      22          1          1      0.000    -10.697     -2.259     -6.576
      23          1          9      0.000    -13.147     -4.470     -4.531
      24          1          1      0.000    -14.887     -7.387     -6.289
      25          1          9      0.000    -12.326    -10.228     -6.039
      26          1          1      0.000    -13.443     -9.519     -2.452
      27          1          8      0.000    -14.548     -9.675      1.215
      28          1          5      0.000    -11.620     -8.567      3.400
      29          1          6      0.000     -9.583     -6.118      5.495
      30          1          4      1.000     -9.278     -5.918      9.311
      31          1          1      0.000    -12.411     -8.012     10.007
      32          1          1      0.000    -15.491    -10.220     10.591
      33          1          8      0.000    -18.561    -12.443     11.108
      34          1          7     -1.000    -16.485    -15.537     11.983
      35          1          1      0.000    -16.364    -15.535     15.818
      36          1         10      0.000    -17.256    -12.221     17.507
      37          1          1      0.000    -14.353    -10.946     15.438
      38          1          8      0.000    -10.790     -9.897     14.279
      39          1          1      0.000    -10.790    -13.229     12.359
      40          1          4      1.000    -10.329    -12.949      8.565
      41          1          1      0.000     -8.129    -16.007      9.295
      42          1          6      0.000     -7.751    -19.117     11.454
      43          1          1      0.000     -6.271    -22.210     13.120
      44          1          7     -1.000     -3.038    -23.904     12.000
      45          1          1      0.000     -1.658    -20.331     11.997
      46          1         10      0.000      1.022    -18.956     14.431
      47          1          5      0.000     -0.716    -17.238     17.369
      48          1          1      0.000     -3.477    -14.778     18.159
      49          1         10      0.000     -7.094    -13.518     18.055
      50          1          1      0.000     -6.623    -13.081     14.290
      51          1          1      0.000     -3.583    -10.841     14.663
      52          1          1      0.000     -3.287    -11.707     10.957
      53          1          9      0.000     -0.559    -14.340     10.218
      54          1          1      0.000     -0.657    -12.322      6.983
      55          1          1      0.000     -4.168    -11.558      5.686
      56          1          1      0.000     -3.311    -13.589      2.577
      57          1          5      0.000     -0.452    -13.819      0.074
      58          1          6      0.000     -2.464    -14.473     -3.107
      59          1          1      0.000     -1.626    -14.415     -6.824
      60          1          1      0.000      1.259    -13.889     -9.327
      61          1          8      0.000      1.722    -10.621     -7.331
      62          1          9      0.000     -0.752     -8.422     -5.324
      63          1          1      0.000     -2.627     -7.432     -2.096
      64          1         10      0.000     -0.087     -7.847      0.728
      65          1          1      0.000     -3.224     -7.526      2.885
      66          1          1      0.000     -2.405     -6.653      6.516
      67          1          1      0.000     -2.904     -3.105      5.164
      68          1          4      1.000     -1.316      0.004      3.563
      69          1          1      0.000     -0.105      3.478      2.364
      70          1          1      0.000     -0.532      3.618     -1.391
      71          1         10      0.000     -1.065      1.149     -4.248
      72          1          1      0.000     -4.024     -0.804     -2.693
      73          1          1      0.000     -6.967     -3.222     -2.359
      74          1          1      0.000     -8.085     -5.886      0.140
      75          1          1      0.000     -9.132     -8.692     -2.232
      76          1          9      0.000     -7.253     -7.301     -5.285
      77          1          1      0.000     -5.040     -4.929     -7.307
      78          1         10      0.000     -2.971     -2.781     -9.752
      79          1          1      0.000      0.417     -4.577     -9.639
      80          1          5      0.000      2.231     -3.618     -6.390
      81          1         11      0.000      3.750     -2.915     -2.949
      82          1          1      0.000      7.556     -2.693     -2.703
      83          1          1      0.000      8.930      0.666     -1.496
      84          1          1      0.000     11.729      2.762     -0.006
      85          1         10      0.000     13.574      3.592     -3.307
      86          1          1      0.000     14.773      0.010     -2.924
      87          1          1      0.000     18.202      0.589     -4.637
      88          1          1      0.000     18.196      3.318     -7.321
      89          1         10      0.000     18.510      7.168     -7.687
      90          1          7     -1.000     15.113      8.238     -9.068
      91          1          5      0.000     13.356      9.972    -11.967
      92          1         10      0.000     12.372     11.436    -15.387
      93          1          1      0.000      9.419     13.436    -16.733
      94          1          1      0.000      6.155     11.527    -16.697
      95          1          1      0.000      5.313     14.630    -18.629
      96          1          5      0.000      1.577     14.010    -18.946
      97          1         10      0.000     -0.168     13.512    -15.597
      98          1          1      0.000     -1.614     10.175    -16.745
      99          1          8      0.000     -1.296      6.556    -17.885
     100          1          1      0.000      1.766      7.262    -20.086
     101          1          5      0.000      4.115      4.797    -18.384
     102          1         10      0.000      5.326      2.978    -15.266
     103          1          5      0.000      7.016      0.199    -13.254
     104          1          7     -1.000      6.573     -1.303     -9.756
     105          1          6      0.000      9.427     -0.254     -7.414
     106          1          1      0.000      9.551      3.553     -7.939
     107          1          5      0.000      8.624      6.981     -9.402
     108          1         10      0.000      6.517      9.082    -11.713
     109          1          5      0.000      2.954      8.432    -12.925
     110          1         11      0.000      0.239      7.017    -10.641
     111          1         11      0.000     -0.684      3.386    -11.435
     112          1          9      0.000     -1.354      1.410    -14.604
     113          1          8      0.000      0.449     -0.948    -17.030
     114          1          5      0.000     -2.497     -0.852    -19.496
     115          1         10      0.000     -6.008     -1.097    -18.012
     116          1          1      0.000     -6.291      2.565    -16.909
     117          1          9      0.000     -7.717      6.036    -16.117
     118          1          3      0.000     -6.887      9.290    -14.336
     119          1         12      1.000     -7.476     12.825    -15.713
     120          1          8      0.000     -6.135     15.540    -13.330
     121          1          1      0.000     -3.957     13.430    -11.007
     122          1          5      0.000     -2.803     13.431     -7.381
     123          1          6      0.000     -1.356     10.379     -5.655
     124          1          1      0.000      0.703      8.146     -3.332
     125          1          1      0.000      4.126      8.571     -4.969
     126          1          8      0.000      4.672     11.675     -2.811
     127          1          4      1.000      4.045     13.603      0.420
     128          1          5      0.000      3.178     14.472      4.035
     129          1          3      0.000      3.088     17.206      6.675
     130          1          1      0.000      6.890     17.529      6.870
     131          1          1      0.000      8.680     16.578      3.618
     132          1          9      0.000     11.391     17.366      0.989
     133          1         10      0.000     12.250     13.935     -0.359
     134          1          1      0.000     14.554     10.881     -0.326
     135          1          1      0.000     16.238     10.604     -3.746
     136          1          1      0.000     17.249      7.645     -1.544
     137          1          5      0.000     20.181      5.301     -1.425
     138          1         10      0.000     22.421      2.433     -0.221
     139          1          1      0.000     19.387      0.197      0.418
     140          1          9      0.000     16.822     -2.462      1.363
     141          1          1      0.000     15.211     -3.116      4.754
     142          1          1      0.000     16.724     -1.417      7.844
     143          1          8      0.000     18.570      1.660      6.534
     144          1          1      0.000     15.671      4.144      6.405
     145          1          1      0.000     15.646      7.827      5.392
     146          1          8      0.000     13.144      8.930      8.059
     147          1          1      0.000     11.909     10.605      4.856
     148          1          1      0.000      8.164     10.559      4.043
     149          1         10      0.000      7.787      8.243      1.029
     150          1          1      0.000     11.476      7.288      0.763
     151          1          1      0.000     11.361      5.810      4.284
     152          1          4      1.000      9.152      4.060      6.862
     153          1          8      0.000      5.990      6.193      7.073
     154          1          4      1.000      4.417      9.338      8.565
     155          1         10      0.000      7.060     11.948      9.456
 
 Bonds
 
       1       1       1       2
       2       1       2       3
       3       1       3       4
       4       1       4       5
       5       1       5       6
       6       1       6       7
       7       1       7       8
       8       1       8       9
       9       1       9      10
      10       1      10      11
      11       1      11      12
      12       1      12      13
      13       1      13      14
      14       1      14      15
      15       1      15      16
      16       1      16      17
      17       1      17      18
      18       1      18      19
      19       1      19      20
      20       1      20      21
      21       1      21      22
      22       1      22      23
      23       1      23      24
      24       1      24      25
      25       1      25      26
      26       1      26      27
      27       1      27      28
      28       1      28      29
      29       1      29      30
      30       1      30      31
      31       1      31      32
      32       1      32      33
      33       1      33      34
      34       1      34      35
      35       1      35      36
      36       1      36      37
      37       1      37      38
      38       1      38      39
      39       1      39      40
      40       1      40      41
      41       1      41      42
      42       1      42      43
      43       1      43      44
      44       1      44      45
      45       1      45      46
      46       1      46      47
      47       1      47      48
      48       1      48      49
      49       1      49      50
      50       1      50      51
      51       1      51      52
      52       1      52      53
      53       1      53      54
      54       1      54      55
      55       1      55      56
      56       1      56      57
      57       1      57      58
      58       1      58      59
      59       1      59      60
      60       1      60      61
      61       1      61      62
      62       1      62      63
      63       1      63      64
      64       1      64      65
      65       1      65      66
      66       1      66      67
      67       1      67      68
      68       1      68      69
      69       1      69      70
      70       1      70      71
      71       1      71      72
      72       1      72      73
      73       1      73      74
      74       1      74      75
      75       1      75      76
      76       1      76      77
      77       1      77      78
      78       1      78      79
      79       1      79      80
      80       1      80      81
      81       1      81      82
      82       1      82      83
      83       1      83      84
      84       1      84      85
      85       1      85      86
      86       1      86      87
      87       1      87      88
      88       1      88      89
      89       1      89      90
      90       1      90      91
      91       1      91      92
      92       1      92      93
      93       1      93      94
      94       1      94      95
      95       1      95      96
      96       1      96      97
      97       1      97      98
      98       1      98      99
      99       1      99     100
     100       1     100     101
     101       1     101     102
     102       1     102     103
     103       1     103     104
     104       1     104     105
     105       1     105     106
     106       1     106     107
     107       1     107     108
     108       1     108     109
     109       1     109     110
     110       1     110     111
     111       1     111     112
     112       1     112     113
     113       1     113     114
     114       1     114     115
     115       1     115     116
     116       1     116     117
     117       1     117     118
     118       1     118     119
     119       1     119     120
     120       1     120     121
     121       1     121     122
     122       1     122     123
     123       1     123     124
     124       1     124     125
     125       1     125     126
     126       1     126     127
     127       1     127     128
     128       1     128     129
     129       1     129     130
     130       1     130     131
     131       1     131     132
     132       1     132     133
     133       1     133     134
     134       1     134     135
     135       1     135     136
     136       1     136     137
     137       1     137     138
     138       1     138     139
     139       1     139     140
     140       1     140     141
     141       1     141     142
     142       1     142     143
     143       1     143     144
     144       1     144     145
     145       1     145     146
     146       1     146     147
     147       1     147     148
     148       1     148     149
     149       1     149     150
     150       1     150     151
     151       1     151     152
     152       1     152     153
     153       1     153     154
     154       1     154     155
 
 Angles
 
       1       1       1       2       3
       2       1       2       3       4
       3       1       3       4       5
       4       1       4       5       6
       5       1       5       6       7
       6       1       6       7       8
       7       1       7       8       9
       8       1       8       9      10
       9       1       9      10      11
      10       1      10      11      12
      11       1      11      12      13
      12       1      12      13      14
      13       1      13      14      15
      14       1      14      15      16
      15       1      15      16      17
      16       1      16      17      18
      17       1      17      18      19
      18       1      18      19      20
      19       1      19      20      21
      20       1      20      21      22
      21       1      21      22      23
      22       1      22      23      24
      23       1      23      24      25
      24       1      24      25      26
      25       1      25      26      27
      26       1      26      27      28
      27       1      27      28      29
      28       1      28      29      30
      29       1      29      30      31
      30       1      30      31      32
      31       1      31      32      33
      32       1      32      33      34
      33       1      33      34      35
      34       1      34      35      36
      35       1      35      36      37
      36       1      36      37      38
      37       1      37      38      39
      38       1      38      39      40
      39       1      39      40      41
      40       1      40      41      42
      41       1      41      42      43
      42       1      42      43      44
      43       1      43      44      45
      44       1      44      45      46
      45       1      45      46      47
      46       1      46      47      48
      47       1      47      48      49
      48       1      48      49      50
      49       1      49      50      51
      50       1      50      51      52
      51       1      51      52      53
      52       1      52      53      54
      53       1      53      54      55
      54       1      54      55      56
      55       1      55      56      57
      56       1      56      57      58
      57       1      57      58      59
      58       1      58      59      60
      59       1      59      60      61
      60       1      60      61      62
      61       1      61      62      63
      62       1      62      63      64
      63       1      63      64      65
      64       1      64      65      66
      65       1      65      66      67
      66       1      66      67      68
      67       1      67      68      69
      68       1      68      69      70
      69       1      69      70      71
      70       1      70      71      72
      71       1      71      72      73
      72       1      72      73      74
      73       1      73      74      75
      74       1      74      75      76
      75       1      75      76      77
      76       1      76      77      78
      77       1      77      78      79
      78       1      78      79      80
      79       1      79      80      81
      80       1      80      81      82
      81       1      81      82      83
      82       1      82      83      84
      83       1      83      84      85
      84       1      84      85      86
      85       1      85      86      87
      86       1      86      87      88
      87       1      87      88      89
      88       1      88      89      90
      89       1      89      90      91
      90       1      90      91      92
      91       1      91      92      93
      92       1      92      93      94
      93       1      93      94      95
      94       1      94      95      96
      95       1      95      96      97
      96       1      96      97      98
      97       1      97      98      99
      98       1      98      99     100
      99       1      99     100     101
     100       1     100     101     102
     101       1     101     102     103
     102       1     102     103     104
     103       1     103     104     105
     104       1     104     105     106
     105       1     105     106     107
     106       1     106     107     108
     107       1     107     108     109
     108       1     108     109     110
     109       1     109     110     111
     110       1     110     111     112
     111       1     111     112     113
     112       1     112     113     114
     113       1     113     114     115
     114       1     114     115     116
     115       1     115     116     117
     116       1     116     117     118
     117       1     117     118     119
     118       1     118     119     120
     119       1     119     120     121
     120       1     120     121     122
     121       1     121     122     123
     122       1     122     123     124
     123       1     123     124     125
     124       1     124     125     126
     125       1     125     126     127
     126       1     126     127     128
     127       1     127     128     129
     128       1     128     129     130
     129       1     129     130     131
     130       1     130     131     132
     131       1     131     132     133
     132       1     132     133     134
     133       1     133     134     135
     134       1     134     135     136
     135       1     135     136     137
     136       1     136     137     138
     137       1     137     138     139
     138       1     138     139     140
     139       1     139     140     141
     140       1     140     141     142
     141       1     141     142     143
     142       1     142     143     144
     143       1     143     144     145
     144       1     144     145     146
     145       1     145     146     147
     146       1     146     147     148
     147       1     147     148     149
     148       1     148     149     150
     149       1     149     150     151
     150       1     150     151     152
     151       1     151     152     153
     152       1     152     153     154
     153       1     153     154     155
 
 Dihedrals
 
       1       1       1       2       3       4
       2       2       2       3       4       5
       3       3       3       4       5       6
       4       4       4       5       6       7
       5       5       5       6       7       8
       6       6       6       7       8       9
       7       7       7       8       9      10
       8       8       8       9      10      11
       9       9       9      10      11      12
      10      10      10      11      12      13
      11      11      11      12      13      14
      12       6      12      13      14      15
      13      12      13      14      15      16
      14      13      14      15      16      17
      15      14      15      16      17      18
      16      15      16      17      18      19
      17       8      17      18      19      20
      18       7      18      19      20      21
      19      16      19      20      21      22
      20      17      20      21      22      23
      21      18      21      22      23      24
      22      19      22      23      24      25
      23      20      23      24      25      26
      24      21      24      25      26      27
      25      18      25      26      27      28
      26      22      26      27      28      29
      27      14      27      28      29      30
      28      23      28      29      30      31
      29      24      29      30      31      32
      30      25      30      31      32      33
      31      26      31      32      33      34
      32       7      32      33      34      35
      33      27      33      34      35      36
      34      28      34      35      36      37
      35      13      35      36      37      38
      36       6      36      37      38      39
      37       6      37      38      39      40
      38      27      38      39      40      41
      39      27      39      40      41      42
      40      26      40      41      42      43
      41      26      41      42      43      44
      42      29      42      43      44      45
      43      30      43      44      45      46
      44      31      44      45      46      47
      45      32      45      46      47      48
      46      29      46      47      48      49
      47       8      47      48      49      50
      48      33      48      49      50      51
      49      19      49      50      51      52
      50      19      50      51      52      53
      51      34      51      52      53      54
      52      34      52      53      54      55
      53      17      53      54      55      56
      54      18      54      55      56      57
      55       7      55      56      57      58
      56      34      56      57      58      59
      57      23      57      58      59      60
      58      35      58      59      60      61
      59      19      59      60      61      62
      60       7      60      61      62      63
      61      27      61      62      63      64
      62      20      62      63      64      65
      63      16      63      64      65      66
      64       6      64      65      66      67
      65       6      65      66      67      68
      66      34      66      67      68      69
      67       7      67      68      69      70
      68       6      68      69      70      71
      69      36      69      70      71      72
      70      34      70      71      72      73
      71       7      71      72      73      74
      72      19      72      73      74      75
      73      16      73      74      75      76
      74       7      74      75      76      77
      75       7      75      76      77      78
      76      17      76      77      78      79
      77      37      77      78      79      80
      78      38      78      79      80      81
      79       7      79      80      81      82
      80      33      80      81      82      83
      81      39      81      82      83      84
      82      38      82      83      84      85
      83      34      83      84      85      86
      84      34      84      85      86      87
      85      29      85      86      87      88
      86      40      86      87      88      89
      87      31      87      88      89      90
      88       8      88      89      90      91
      89      29      89      90      91      92
      90      32      90      91      92      93
      91      31      91      92      93      94
      92      26      92      93      94      95
      93      30      93      94      95      96
      94       7      94      95      96      97
      95      41      95      96      97      98
      96      23      96      97      98      99
      97      26      97      98      99     100
      98      30      98      99     100     101
      99      24      99     100     101     102
     100      42     100     101     102     103
     101       9     101     102     103     104
     102      30     102     103     104     105
     103      26     103     104     105     106
     104      43     104     105     106     107
     105      44     105     106     107     108
     106      39     106     107     108     109
     107      45     107     108     109     110
     108      46     108     109     110     111
     109      35     109     110     111     112
     110      47     110     111     112     113
     111      48     111     112     113     114
     112      49     112     113     114     115
     113      50     113     114     115     116
     114      51     114     115     116     117
     115      52     115     116     117     118
     116      53     116     117     118     119
     117      20     117     118     119     120
     118      54     118     119     120     121
     119      52     119     120     121     122
     120      53     120     121     122     123
     121      41     121     122     123     124
     122      23     122     123     124     125
     123      55     123     124     125     126
     124       5     124     125     126     127
     125       4     125     126     127     128
     126      56     126     127     128     129