 LAMMPS data file for protein binding
 
         163   atoms
         162   bonds
         161   angles
         160   dihedrals
 
          10   atom types
           1   bond types
           1   angle types
          69   dihedral types
 
  -150.000000       150.000000        xlo xhi
  -150.000000       150.000000        ylo yhi
  -150.000000       150.000000        zlo zhi
 
 Masses
 
           1   131.199997    
           2   71.0800018    
           3   87.0800018    
           4   114.099998    
           5   115.099998    
           6   163.199997    
           7   101.099998    
           8   128.100006    
           9   57.0499992    
          10   97.1200027    
 
 Atoms
 
       1          1          1      0.000    -11.963     16.401     -1.887
       2          1          2      0.000     -8.448     17.538     -0.911
       3          1          3      0.000     -6.792     20.499      0.878
       4          1          4      0.000     -5.061     22.329     -1.990
       5          1          5     -1.000     -7.648     22.612     -4.774
       6          1          6      0.000     -8.601     19.916     -7.261
       7          1          7      0.000    -11.917     19.351     -9.103
       8          1          8      0.000    -14.854     20.460    -11.325
       9          1          8      0.000    -14.577     24.264    -11.105
      10          1          2      0.000    -16.935     24.935     -8.176
      11          1          7      0.000    -15.232     24.263     -4.827
      12          1          8      0.000    -12.947     23.325     -1.917
      13          1          3      0.000    -11.902     26.467     -0.025
      14          1          6      0.000     -9.061     25.892      2.543
      15          1          9      0.000     -6.711     27.732      0.115
      16          1          2      0.000     -8.550     30.976     -0.588
      17          1          6      0.000     -5.842     33.268      0.830
      18          1         10      0.000     -3.185     35.361      2.662
      19          1          7      0.000     -1.495     38.437      4.316
      20          1          8      0.000      0.851     40.117      1.810
      21          1         10      0.000     -0.407     38.264     -1.301
      22          1          9      0.000     -0.123     34.524     -2.201
      23          1          8      0.000      2.616     33.221      0.050
      24          1          9      0.000      1.660     29.499      0.197
      25          1          6      0.000      4.111     26.820      1.504
      26          1          3      0.000      7.373     25.817     -0.211
      27          1          8      0.000      6.881     23.164     -2.897
      28          1          8      0.000      9.429     20.917     -4.512
      29          1          3      0.000      9.503     17.119     -4.362
      30          1          3      0.000      6.348     15.091     -5.036
      31          1          8      0.000      3.247     15.121     -7.212
      32          1         10      0.000      0.855     15.478    -10.174
      33          1          6      0.000     -2.859     15.856    -10.677
      34          1          9      0.000     -2.626     15.873     -6.824
      35          1          8      0.000     -5.497     14.454     -4.725
      36          1          8      0.000     -4.599     10.792     -4.883
      37          1          3      0.000     -1.057      9.321     -4.860
      38          1          6      0.000      2.598      8.430     -4.351
      39          1          3      0.000      2.641      5.172     -2.344
      40          1          9      0.000      0.402      2.746     -4.197
      41          1          6      0.000     -3.325      3.665     -4.368
      42          1          3      0.000     -3.468      5.419     -7.767
      43          1          8      0.000     -2.080      7.916    -10.306
      44          1          3      0.000     -5.296      9.830    -10.991
      45          1          7      0.000     -7.248      8.302    -13.898
      46          1          5     -1.000     -6.805      4.651    -12.866
      47          1          7      0.000     -9.681      3.719    -10.531
      48          1          3      0.000     -9.399      1.175     -7.696
      49          1          9      0.000     -8.389     -0.746     -4.552
      50          1          6      0.000     -9.871     -4.146     -5.467
      51          1          9      0.000     -9.734     -5.632     -1.944
      52          1          8      0.000    -10.091     -8.240      0.847
      53          1          3      0.000    -12.622    -11.046      0.332
      54          1          3      0.000     -9.872    -13.668     -0.137
      55          1          6      0.000     -9.135    -16.889     -2.054
      56          1          3      0.000    -12.087    -16.536     -4.494
      57          1          3      0.000    -13.201    -17.920     -7.889
      58          1          6      0.000    -14.238    -17.923    -11.596
      59          1          9      0.000    -11.174    -15.832    -12.157
      60          1          8      0.000    -10.065    -14.995    -15.715
      61          1          3      0.000    -11.373    -11.409    -15.867
      62          1          8      0.000    -12.863     -8.147    -14.553
      63          1          4      0.000    -16.597     -8.885    -14.877
      64          1          7      0.000    -17.995    -10.772    -11.864
      65          1          9      0.000    -16.497    -13.581     -9.776
      66          1          6      0.000    -17.549    -14.148     -6.115
      67          1          9      0.000    -16.510    -14.083     -2.394
      68          1          7      0.000    -18.746    -13.662      0.681
      69          1          8      0.000    -20.197    -10.663     -1.189
      70          1          3      0.000    -20.056     -8.076     -3.999
      71          1          7      0.000    -16.729     -7.375     -5.723
      72          1         10      0.000    -13.852     -8.245     -8.079
      73          1          8      0.000    -11.799    -10.867     -6.182
      74          1          9      0.000     -8.067    -10.374     -6.053
      75          1          6      0.000     -4.526    -10.203     -4.668
      76          1          9      0.000     -2.647    -13.309     -5.728
      77          1          3      0.000     -0.337    -16.172     -6.798
      78          1          7      0.000      2.737    -18.312     -6.170
      79          1          9      0.000      6.105    -19.292     -4.665
      80          1          9      0.000      9.417    -21.190     -4.009
      81          1          6      0.000      7.715    -23.854     -1.961
      82          1          9      0.000      5.320    -24.145     -4.926
      83          1          3      0.000      1.520    -24.214     -4.902
      84          1          3      0.000      1.702    -22.508     -1.487
      85          1          8      0.000      0.741    -25.190      1.070
      86          1          3      0.000      0.831    -23.460      4.524
      87          1          3      0.000      0.506    -20.555      6.998
      88          1          8      0.000     -0.023    -17.811      9.584
      89          1          3      0.000     -0.130    -17.675     13.317
      90          1          3      0.000     -0.430    -21.330     14.447
      91          1          6      0.000     -1.543    -23.887     11.889
      92          1          9      0.000     -4.833    -23.992      9.847
      93          1          8      0.000     -4.769    -24.570      6.071
      94          1          8      0.000     -4.578    -21.905      3.245
      95          1          3      0.000     -2.666    -18.596      3.496
      96          1          3      0.000      0.469    -18.026      1.383
      97          1          6      0.000     -0.712    -14.799     -0.290
      98          1         10      0.000     -4.312    -14.202      0.885
      99          1          9      0.000     -5.323    -11.306      3.230
     100          1          6      0.000     -2.672     -8.501      3.486
     101          1          9      0.000      0.088    -11.095      3.869
     102          1          8      0.000      3.802    -11.045      4.758
     103          1          8      0.000      5.289    -14.132      3.100
     104          1         10      0.000      5.318    -16.757      5.872
     105          1          2      0.000      6.470    -16.186      9.494
     106          1         10      0.000     10.247    -16.304      8.996
     107          1          3      0.000     12.229    -19.242     10.459
     108          1          3      0.000     11.269    -22.862      9.708
     109          1          7      0.000      7.554    -22.155      9.928
     110          1          3      0.000      5.719    -24.489      7.441
     111          1          9      0.000      8.260    -24.175      4.628
     112          1          3      0.000      9.167    -20.813      2.928
     113          1          6      0.000     11.299    -18.166      1.122
     114          1          9      0.000     13.341    -17.671      4.290
     115          1          3      0.000     16.167    -19.203      6.348
     116          1          3      0.000     18.254    -21.428      8.692
     117          1          3      0.000     15.929    -22.302     11.659
     118          1          8      0.000     15.623    -20.785     15.176
     119          1          3      0.000     14.999    -17.322     16.708
     120          1          3      0.000     13.238    -14.824     14.467
     121          1          3      0.000     16.056    -15.634     12.079
     122          1          6      0.000     15.653    -13.720      8.797
     123          1          9      0.000     15.623    -12.003      5.403
     124          1          8      0.000     15.477    -12.973      1.687
     125          1         10      0.000     17.840    -16.012      1.236
     126          1          8      0.000     19.994    -17.311     -1.655
     127          1          3      0.000     22.532    -14.485     -1.541
     128          1          9      0.000     24.333    -16.411      1.261
     129          1          3      0.000     22.216    -18.772      3.391
     130          1          6      0.000     21.331    -16.844      6.568
     131          1          3      0.000     22.363    -13.252      5.777
     132          1          8      0.000     22.102     -9.488      6.374
     133          1          8      0.000     18.942     -7.840      5.000
     134          1         10      0.000     16.095     -7.412      7.491
     135          1          3      0.000     12.550     -6.713      6.330
     136          1          6      0.000     11.319     -3.111      6.011
     137          1          9      0.000     11.912     -2.584      2.273
     138          1          9      0.000      8.601     -2.778      0.413
     139          1          8      0.000      5.273     -1.642      1.809
     140          1          8      0.000      6.461      1.828      2.828
     141          1          8      0.000      5.396      5.449      2.678
     142          1          3      0.000      5.543      8.699      0.666
     143          1          6      0.000      7.557     11.892      1.278
     144          1          9      0.000      8.663     15.302      2.702
     145          1          8      0.000      7.642     18.854      1.739
     146          1          8      0.000      4.013     18.750      0.550
     147          1          8      0.000      1.744     18.644     -2.521
     148          1          3      0.000      0.294     15.110     -2.475
     149          1          6      0.000     -1.057     13.216      0.556
     150          1          4      0.000     -3.701     15.849      1.376
     151          1         10      0.000     -3.703     17.307      4.907
     152          1         10      0.000     -6.019     14.847      6.770
     153          1          8      0.000     -8.975     17.077      7.699
     154          1          9      0.000     -7.009     20.273      6.849
     155          1          6      0.000     -4.680     22.184      9.203
     156          1          9      0.000     -3.639     23.287      5.700
     157          1          8      0.000     -2.024     24.791      2.597
     158          1          8      0.000     -2.437     28.363      3.819
     159          1          4      0.000     -0.413     29.985      6.643
     160          1          8      0.000      2.399     27.719      7.900
     161          1          6      0.000      4.826     24.722      7.942
     162          1          4      0.000      3.028     21.369      8.287
     163          1          3      0.000      1.042     20.786      5.083
 
 Bonds
 
       1       1       1       2
       2       1       2       3
       3       1       3       4
       4       1       4       5
       5       1       5       6
       6       1       6       7
       7       1       7       8
       8       1       8       9
       9       1       9      10
      10       1      10      11
      11       1      11      12
      12       1      12      13
      13       1      13      14
      14       1      14      15
      15       1      15      16
      16       1      16      17
      17       1      17      18
      18       1      18      19
      19       1      19      20
      20       1      20      21
      21       1      21      22
      22       1      22      23
      23       1      23      24
      24       1      24      25
      25       1      25      26
      26       1      26      27
      27       1      27      28
      28       1      28      29
      29       1      29      30
      30       1      30      31
      31       1      31      32
      32       1      32      33
      33       1      33      34
      34       1      34      35
      35       1      35      36
      36       1      36      37
      37       1      37      38
      38       1      38      39
      39       1      39      40
      40       1      40      41
      41       1      41      42
      42       1      42      43
      43       1      43      44
      44       1      44      45
      45       1      45      46
      46       1      46      47
      47       1      47      48
      48       1      48      49
      49       1      49      50
      50       1      50      51
      51       1      51      52
      52       1      52      53
      53       1      53      54
      54       1      54      55
      55       1      55      56
      56       1      56      57
      57       1      57      58
      58       1      58      59
      59       1      59      60
      60       1      60      61
      61       1      61      62
      62       1      62      63
      63       1      63      64
      64       1      64      65
      65       1      65      66
      66       1      66      67
      67       1      67      68
      68       1      68      69
      69       1      69      70
      70       1      70      71
      71       1      71      72
      72       1      72      73
      73       1      73      74
      74       1      74      75
      75       1      75      76
      76       1      76      77
      77       1      77      78
      78       1      78      79
      79       1      79      80
      80       1      80      81
      81       1      81      82
      82       1      82      83
      83       1      83      84
      84       1      84      85
      85       1      85      86
      86       1      86      87
      87       1      87      88
      88       1      88      89
      89       1      89      90
      90       1      90      91
      91       1      91      92
      92       1      92      93
      93       1      93      94
      94       1      94      95
      95       1      95      96
      96       1      96      97
      97       1      97      98
      98       1      98      99
      99       1      99     100
     100       1     100     101
     101       1     101     102
     102       1     102     103
     103       1     103     104
     104       1     104     105
     105       1     105     106
     106       1     106     107
     107       1     107     108
     108       1     108     109
     109       1     109     110
     110       1     110     111
     111       1     111     112
     112       1     112     113
     113       1     113     114
     114       1     114     115
     115       1     115     116
     116       1     116     117
     117       1     117     118
     118       1     118     119
     119       1     119     120
     120       1     120     121
     121       1     121     122
     122       1     122     123
     123       1     123     124
     124       1     124     125
     125       1     125     126
     126       1     126     127
     127       1     127     128
     128       1     128     129
     129       1     129     130
     130       1     130     131
     131       1     131     132
     132       1     132     133
     133       1     133     134
     134       1     134     135
     135       1     135     136
     136       1     136     137
     137       1     137     138
     138       1     138     139
     139       1     139     140
     140       1     140     141
     141       1     141     142
     142       1     142     143
     143       1     143     144
     144       1     144     145
     145       1     145     146
     146       1     146     147
     147       1     147     148
     148       1     148     149
     149       1     149     150
     150       1     150     151
     151       1     151     152
     152       1     152     153
     153       1     153     154
     154       1     154     155
     155       1     155     156
     156       1     156     157
     157       1     157     158
     158       1     158     159
     159       1     159     160
     160       1     160     161
     161       1     161     162
     162       1     162     163
 
 Angles
 
       1       1       1       2       3
       2       1       2       3       4
       3       1       3       4       5
       4       1       4       5       6
       5       1       5       6       7
       6       1       6       7       8
       7       1       7       8       9
       8       1       8       9      10
       9       1       9      10      11
      10       1      10      11      12
      11       1      11      12      13
      12       1      12      13      14
      13       1      13      14      15
      14       1      14      15      16
      15       1      15      16      17
      16       1      16      17      18
      17       1      17      18      19
      18       1      18      19      20
      19       1      19      20      21
      20       1      20      21      22
      21       1      21      22      23
      22       1      22      23      24
      23       1      23      24      25
      24       1      24      25      26
      25       1      25      26      27
      26       1      26      27      28
      27       1      27      28      29
      28       1      28      29      30
      29       1      29      30      31
      30       1      30      31      32
      31       1      31      32      33
      32       1      32      33      34
      33       1      33      34      35
      34       1      34      35      36
      35       1      35      36      37
      36       1      36      37      38
      37       1      37      38      39
      38       1      38      39      40
      39       1      39      40      41
      40       1      40      41      42
      41       1      41      42      43
      42       1      42      43      44
      43       1      43      44      45
      44       1      44      45      46
      45       1      45      46      47
      46       1      46      47      48
      47       1      47      48      49
      48       1      48      49      50
      49       1      49      50      51
      50       1      50      51      52
      51       1      51      52      53
      52       1      52      53      54
      53       1      53      54      55
      54       1      54      55      56
      55       1      55      56      57
      56       1      56      57      58
      57       1      57      58      59
      58       1      58      59      60
      59       1      59      60      61
      60       1      60      61      62
      61       1      61      62      63
      62       1      62      63      64
      63       1      63      64      65
      64       1      64      65      66
      65       1      65      66      67
      66       1      66      67      68
      67       1      67      68      69
      68       1      68      69      70
      69       1      69      70      71
      70       1      70      71      72
      71       1      71      72      73
      72       1      72      73      74
      73       1      73      74      75
      74       1      74      75      76
      75       1      75      76      77
      76       1      76      77      78
      77       1      77      78      79
      78       1      78      79      80
      79       1      79      80      81
      80       1      80      81      82
      81       1      81      82      83
      82       1      82      83      84
      83       1      83      84      85
      84       1      84      85      86
      85       1      85      86      87
      86       1      86      87      88
      87       1      87      88      89
      88       1      88      89      90
      89       1      89      90      91
      90       1      90      91      92
      91       1      91      92      93
      92       1      92      93      94
      93       1      93      94      95
      94       1      94      95      96
      95       1      95      96      97
      96       1      96      97      98
      97       1      97      98      99
      98       1      98      99     100
      99       1      99     100     101
     100       1     100     101     102
     101       1     101     102     103
     102       1     102     103     104
     103       1     103     104     105
     104       1     104     105     106
     105       1     105     106     107
     106       1     106     107     108
     107       1     107     108     109
     108       1     108     109     110
     109       1     109     110     111
     110       1     110     111     112
     111       1     111     112     113
     112       1     112     113     114
     113       1     113     114     115
     114       1     114     115     116
     115       1     115     116     117
     116       1     116     117     118
     117       1     117     118     119
     118       1     118     119     120
     119       1     119     120     121
     120       1     120     121     122
     121       1     121     122     123
     122       1     122     123     124
     123       1     123     124     125
     124       1     124     125     126
     125       1     125     126     127
     126       1     126     127     128
     127       1     127     128     129
     128       1     128     129     130
     129       1     129     130     131
     130       1     130     131     132
     131       1     131     132     133
     132       1     132     133     134
     133       1     133     134     135
     134       1     134     135     136
     135       1     135     136     137
     136       1     136     137     138
     137       1     137     138     139
     138       1     138     139     140
     139       1     139     140     141
     140       1     140     141     142
     141       1     141     142     143
     142       1     142     143     144
     143       1     143     144     145
     144       1     144     145     146
     145       1     145     146     147
     146       1     146     147     148
     147       1     147     148     149
     148       1     148     149     150
     149       1     149     150     151
     150       1     150     151     152
     151       1     151     152     153
     152       1     152     153     154
     153       1     153     154     155
     154       1     154     155     156
     155       1     155     156     157
     156       1     156     157     158
     157       1     157     158     159
     158       1     158     159     160
     159       1     159     160     161
     160       1     160     161     162
     161       1     161     162     163
 
 Dihedrals
 
       1       1       1       2       3       4
       2       2       2       3       4       5
       3       3       3       4       5       6
       4       4       4       5       6       7
       5       5       5       6       7       8
       6       6       6       7       8       9
       7       7       7       8       9      10
       8       8       8       9      10      11
       9       9       9      10      11      12
      10      10      10      11      12      13
      11      11      11      12      13      14
      12      12      12      13      14      15
      13      10      13      14      15      16
      14      13      14      15      16      17
      15      14      15      16      17      18
      16      12      16      17      18      19
      17      15      17      18      19      20
      18      16      18      19      20      21
      19      17      19      20      21      22
      20      18      20      21      22      23
      21      19      21      22      23      24
      22      20      22      23      24      25
      23      21      23      24      25      26
      24       8      24      25      26      27
      25      22      25      26      27      28
      26      23      26      27      28      29
      27      24      27      28      29      30
      28      25      28      29      30      31
      29      26      29      30      31      32
      30      27      30      31      32      33
      31      21      31      32      33      34
      32      25      32      33      34      35
      33      26      33      34      35      36
      34      28      34      35      36      37
      35      22      35      36      37      38
      36      21      36      37      38      39
      37      22      37      38      39      40
      38      29      38      39      40      41
      39      30      39      40      41      42
      40      31      40      41      42      43
      41      32      41      42      43      44
      42      33      42      43      44      45
      43      34      43      44      45      46
      44      35      44      45      46      47
      45      36      45      46      47      48
      46      37      46      47      48      49
      47      37      47      48      49      50
      48      38      48      49      50      51
      49      31      49      50      51      52
      50      27      50      51      52      53
      51      28      51      52      53      54
      52      22      52      53      54      55
      53      39      53      54      55      56
      54      23      54      55      56      57
      55      28      55      56      57      58
      56      22      56      57      58      59
      57      39      57      58      59      60
      58      30      58      59      60      61
      59      40      59      60      61      62
      60      41      60      61      62      63
      61      38      61      62      63      64
      62      22      62      63      64      65
      63      40      63      64      65      66
      64      42      64      65      66      67
      65      43      65      66      67      68
      66      22      66      67      68      69
      67      32      67      68      69      70
      68      44      68      69      70      71
      69      45      69      70      71      72
      70      21      70      71      72      73
      71      32      71      72      73      74
      72      14      72      73      74      75
      73      46      73      74      75      76
      74      38      74      75      76      77
      75      47      75      76      77      78
      76      48      76      77      78      79
      77      49      77      78      79      80
      78      32      78      79      80      81
      79      50      79      80      81      82
      80      51      80      81      82      83
      81      22      81      82      83      84
      82      22      82      83      84      85
      83      52      83      84      85      86
      84      39      84      85      86      87
      85      24      85      86      87      88
      86      39      86      87      88      89
      87      23      87      88      89      90
      88      22      88      89      90      91
      89      21      89      90      91      92
      90      24      90      91      92      93
      91      30      91      92      93      94
      92      27      92      93      94      95
      93      22      93      94      95      96
      94      53      94      95      96      97
      95      46      95      96      97      98
      96      27      96      97      98      99
      97      28      97      98      99     100
      98      19      98      99     100     101
      99      54      99     100     101     102
     100      19     100     101     102     103
     101      26     101     102     103     104
     102      55     102     103     104     105
     103      55     103     104     105     106